 Gaussian 16, Revision B.01,
 Gaussian 16:  ES64L-G16RevB.01 20-Dec-2017

 --------------------------
 #mn15/aug-cc-pvtz freq opt
 --------------------------

 ---------------------------------------
 geometry optimization and freqs for H2O
 ---------------------------------------
 Symbolic Z-matrix:
 Charge =  0 Multiplicity = 1

 SCF Done:  E(RMN15) =  -76.3835592277     A.U. after    8 cycles
 SCF Done:  E(RMN15) =  -76.3840350061     A.U. after    8 cycles
 SCF Done:  E(RMN15) =  -76.3840403863     A.U. after    7 cycles
 Optimization completed.
    -- Stationary point found.
 Normal termination of Gaussian 16 at Tue Nov 22 12:28:40 2022.

 ----------------------------------------------------------------------
 #N Geom=AllCheck Guess=TCheck SCRF=Check GenChk RMN15/Aug-CC-pVTZ Freq
 ----------------------------------------------------------------------

 Structure from the checkpoint file:  "H2O_1et.chk"
 ---------------------------------------
 geometry optimization and freqs for H2O
 ---------------------------------------
 Charge =  0 Multiplicity = 1

                         Standard orientation:
 ---------------------------------------------------------------------
 Center     Atomic      Atomic             Coordinates (Angstroms)
 Number     Number       Type             X           Y           Z
 ---------------------------------------------------------------------
      1          8           0        0.000000    0.000000    0.115816
      2          1           0        0.000000    0.767370   -0.463266
      3          1           0       -0.000000   -0.767370   -0.463266
 ---------------------------------------------------------------------

 SCF Done:  E(RMN15) =  -76.3840403863     A.U. after    1 cycles

 The electronic state is 1-A1.
 Alpha  occ. eigenvalues --  -18.82760  -1.05504  -0.57895  -0.43860  -0.37069
 Alpha virt. eigenvalues --    0.02184   0.05094   0.11274   0.15231   0.15666
 Alpha virt. eigenvalues --    0.15855   0.20646   0.22926   0.25307   0.27730
 Alpha virt. eigenvalues --    0.27934   0.36736   0.38349   0.39943   0.52728

 Mulliken charges:
               1
     1  O   -0.440121
     2  H    0.220060
     3  H    0.220060
 Sum of Mulliken charges =  -0.00000

 Dipole moment (field-independent basis, Debye):
    X=             -0.0000    Y=              0.0000    Z=             -1.8822  Tot=              1.8822
 Quadrupole moment (field-independent basis, Debye-Ang):
   XX=             -7.6937   YY=             -4.3649   ZZ=             -6.4507
   XY=              0.0000   XZ=              0.0000   YZ=             -0.0000

  Exact polarizability:   8.937   0.000  10.058  -0.000  -0.000   9.440
 Approx polarizability:   8.428   0.000  10.919   0.000  -0.000   9.989

                      1                      2                      3
                     A1                     A1                     B2
 Frequencies --   1582.7103              3868.7753              3978.1096
 Red. masses --      1.0837                 1.0442                 1.0833
 Frc consts  --      1.5994                 9.2086                10.1004
 IR Inten    --     80.8576                 6.7881                74.9778

 - Thermochemistry -
 -------------------
 Temperature   298.150 Kelvin.  Pressure   1.00000 Atm.
 Atom     1 has atomic number  8 and mass  15.99491

 Molecular mass:    18.01056 amu.
 Principal axes and moments of inertia in atomic units:
                           1         2         3
     Eigenvalues --     2.14362   4.23860   6.38222
           X            0.00000   0.00000   1.00000
           Y            1.00000   0.00000  -0.00000
           Z           -0.00000   1.00000  -0.00000
 This molecule is an asymmetric top.
 Rotational symmetry number  2.
 Rotational temperatures (Kelvin)     40.40543    20.43455    13.57112
 Rotational constants (GHZ):         841.91243   425.78698   282.77630
 Zero-point vibrational energy      56401.5 (Joules/Mol)
                                   13.48028 (Kcal/Mol)
 Vibrational temperatures:   2277.17  5566.30  5723.61
          (Kelvin)

 Zero-point correction=                           0.021482 (Hartree/Particle)
 Thermal correction to Energy=                    0.024318
 Thermal correction to Enthalpy=                  0.025262
 Thermal correction to Gibbs Free Energy=         0.003845
 Sum of electronic and zero-point Energies=            -76.362558
 Sum of electronic and thermal Energies=               -76.359722
 Sum of electronic and thermal Enthalpies=             -76.358778
 Sum of electronic and thermal Free Energies=          -76.380195

                     E (Thermal)             CV                S
                      KCal/Mol        Cal/Mol-Kelvin    Cal/Mol-Kelvin
 Total                   15.260              6.018             45.076
 Electronic               0.000              0.000              0.000
 Translational            0.889              2.981             34.608
 Rotational               0.889              2.981             10.460
 Vibrational             13.482              0.056              0.008

 Optimization completed.
    -- Stationary point found.
 Normal termination of Gaussian 16 at Tue Nov 22 12:28:47 2022.
